+ 1 0 1 tcp 40 ------- 0 0.0 1.0 0 0
- 1 0 1 tcp 40 ------- 0 0.0 1.0 0 0
r 1.01032 0 1 tcp 40 ------- 0 0.0 1.0 0 0
+ 1.01032 1 0 ack 40 ------- 0 1.0 0.0 0 1
- 1.01032 1 0 ack 40 ------- 0 1.0 0.0 0 1
r 1.02064 1 0 ack 40 ------- 0 1.0 0.0 0 1
+ 1.02064 0 1 tcp 1040 ------- 0 0.0 1.0 1 2
- 1.02064 0 1 tcp 1040 ------- 0 0.0 1.0 1 2
+ 1.02064 0 1 tcp 1040 ------- 0 0.0 1.0 2 3
- 1.02896 0 1 tcp 1040 ------- 0 0.0 1.0 2 3
r 1.03896 0 1 tcp 1040 ------- 0 0.0 1.0 1 2
+ 1.03896 1 0 ack 40 ------- 0 1.0 0.0 1 4
- 1.03896 1 0 ack 40 ------- 0 1.0 0.0 1 4
r 1.04728 0 1 tcp 1040 ------- 0 0.0 1.0 2 3
+ 1.04728 1 0 ack 40 ------- 0 1.0 0.0 2 5
- 1.04728 1 0 ack 40 ------- 0 1.0 0.0 2 5
r 1.04928 1 0 ack 40 ------- 0 1.0 0.0 1 4
+ 1.04928 0 1 tcp 1040 ------- 0 0.0 1.0 3 6
- 1.04928 0 1 tcp 1040 ------- 0 0.0 1.0 3 6
+ 1.04928 0 1 tcp 1040 ------- 0 0.0 1.0 4 7
r 1.0576 1 0 ack 40 ------- 0 1.0 0.0 2 5
+ 1.0576 0 1 tcp 1040 ------- 0 0.0 1.0 5 8
+ 1.0576 0 1 tcp 1040 ------- 0 0.0 1.0 6 9
- 1.0576 0 1 tcp 1040 ------- 0 0.0 1.0 4 7
- 1.06592 0 1 tcp 1040 ------- 0 0.0 1.0 5 8
r 1.0676 0 1 tcp 1040 ------- 0 0.0 1.0 3 6
+ 1.0676 1 0 ack 40 ------- 0 1.0 0.0 3 10
- 1.0676 1 0 ack 40 ------- 0 1.0 0.0 3 10
- 1.07424 0 1 tcp 1040 ------- 0 0.0 1.0 6 9
r 1.07592 0 1 tcp 1040 ------- 0 0.0 1.0 4 7
+ 1.07592 1 0 ack 40 ------- 0 1.0 0.0 4 11
- 1.07592 1 0 ack 40 ------- 0 1.0 0.0 4 11
r 1.07792 1 0 ack 40 ------- 0 1.0 0.0 3 10
+ 1.07792 0 1 tcp 1040 ------- 0 0.0 1.0 7 12
+ 1.07792 0 1 tcp 1040 ------- 0 0.0 1.0 8 13
- 1.08256 0 1 tcp 1040 ------- 0 0.0 1.0 7 12
r 1.08424 0 1 tcp 1040 ------- 0 0.0 1.0 5 8
+ 1.08424 1 0 ack 40 ------- 0 1.0 0.0 5 14
- 1.08424 1 0 ack 40 ------- 0 1.0 0.0 5 14
r 1.08624 1 0 ack 40 ------- 0 1.0 0.0 4 11
+ 1.08624 0 1 tcp 1040 ------- 0 0.0 1.0 9 15
+ 1.08624 0 1 tcp 1040 ------- 0 0.0 1.0 10 16
- 1.09088 0 1 tcp 1040 ------- 0 0.0 1.0 8 13
r 1.09256 0 1 tcp 1040 ------- 0 0.0 1.0 6 9
+ 1.09256 1 0 ack 40 ------- 0 1.0 0.0 6 17
- 1.09256 1 0 ack 40 ------- 0 1.0 0.0 6 17
r 1.09456 1 0 ack 40 ------- 0 1.0 0.0 5 14
+ 1.09456 0 1 tcp 1040 ------- 0 0.0 1.0 11 18
+ 1.09456 0 1 tcp 1040 ------- 0 0.0 1.0 12 19
- 1.0992 0 1 tcp 1040 ------- 0 0.0 1.0 9 15
r 1.10088 0 1 tcp 1040 ------- 0 0.0 1.0 7 12
+ 1.10088 1 0 ack 40 ------- 0 1.0 0.0 7 20
- 1.10088 1 0 ack 40 ------- 0 1.0 0.0 7 20
r 1.10288 1 0 ack 40 ------- 0 1.0 0.0 6 17
+ 1.10288 0 1 tcp 1040 ------- 0 0.0 1.0 13 21
+ 1.10288 0 1 tcp 1040 ------- 0 0.0 1.0 14 22
- 1.10752 0 1 tcp 1040 ------- 0 0.0 1.0 10 16
r 1.1092 0 1 tcp 1040 ------- 0 0.0 1.0 8 13
+ 1.1092 1 0 ack 40 ------- 0 1.0 0.0 8 23
- 1.1092 1 0 ack 40 ------- 0 1.0 0.0 8 23
r 1.1112 1 0 ack 40 ------- 0 1.0 0.0 7 20
+ 1.1112 0 1 tcp 1040 ------- 0 0.0 1.0 15 24
+ 1.1112 0 1 tcp 1040 ------- 0 0.0 1.0 16 25
- 1.11584 0 1 tcp 1040 ------- 0 0.0 1.0 11 18
r 1.11752 0 1 tcp 1040 ------- 0 0.0 1.0 9 15
+ 1.11752 1 0 ack 40 ------- 0 1.0 0.0 9 26
- 1.11752 1 0 ack 40 ------- 0 1.0 0.0 9 26
r 1.11952 1 0 ack 40 ------- 0 1.0 0.0 8 23
+ 1.11952 0 1 tcp 1040 ------- 0 0.0 1.0 17 27
+ 1.11952 0 1 tcp 1040 ------- 0 0.0 1.0 18 28
- 1.12416 0 1 tcp 1040 ------- 0 0.0 1.0 12 19
r 1.12584 0 1 tcp 1040 ------- 0 0.0 1.0 10 16
+ 1.12584 1 0 ack 40 ------- 0 1.0 0.0 10 29
- 1.12584 1 0 ack 40 ------- 0 1.0 0.0 10 29
r 1.12784 1 0 ack 40 ------- 0 1.0 0.0 9 26
+ 1.12784 0 1 tcp 1040 ------- 0 0.0 1.0 19 30
+ 1.12784 0 1 tcp 1040 ------- 0 0.0 1.0 20 31
- 1.13248 0 1 tcp 1040 ------- 0 0.0 1.0 13 21
r 1.13416 0 1 tcp 1040 ------- 0 0.0 1.0 11 18
+ 1.13416 1 0 ack 40 ------- 0 1.0 0.0 11 32
- 1.13416 1 0 ack 40 ------- 0 1.0 0.0 11 32
r 1.13616 1 0 ack 40 ------- 0 1.0 0.0 10 29
+ 1.13616 0 1 tcp 1040 ------- 0 0.0 1.0 21 33
+ 1.13616 0 1 tcp 1040 ------- 0 0.0 1.0 22 34
- 1.1408 0 1 tcp 1040 ------- 0 0.0 1.0 14 22
r 1.14248 0 1 tcp 1040 ------- 0 0.0 1.0 12 19
+ 1.14248 1 0 ack 40 ------- 0 1.0 0.0 12 35
- 1.14248 1 0 ack 40 ------- 0 1.0 0.0 12 35
r 1.14448 1 0 ack 40 ------- 0 1.0 0.0 11 32
+ 1.14448 0 1 tcp 1040 ------- 0 0.0 1.0 23 36
+ 1.14448 0 1 tcp 1040 ------- 0 0.0 1.0 24 37
- 1.14912 0 1 tcp 1040 ------- 0 0.0 1.0 15 24
r 1.1508 0 1 tcp 1040 ------- 0 0.0 1.0 13 21
+ 1.1508 1 0 ack 40 ------- 0 1.0 0.0 13 38
- 1.1508 1 0 ack 40 ------- 0 1.0 0.0 13 38
r 1.1528 1 0 ack 40 ------- 0 1.0 0.0 12 35
+ 1.1528 0 1 tcp 1040 ------- 0 0.0 1.0 25 39
+ 1.1528 0 1 tcp 1040 ------- 0 0.0 1.0 26 40
- 1.15744 0 1 tcp 1040 ------- 0 0.0 1.0 16 25
r 1.15912 0 1 tcp 1040 ------- 0 0.0 1.0 14 22
+ 1.15912 1 0 ack 40 ------- 0 1.0 0.0 14 41
- 1.15912 1 0 ack 40 ------- 0 1.0 0.0 14 41
r 1.16112 1 0 ack 40 ------- 0 1.0 0.0 13 38
+ 1.16112 0 1 tcp 1040 ------- 0 0.0 1.0 27 42
+ 1.16112 0 1 tcp 1040 ------- 0 0.0 1.0 28 43
- 1.16576 0 1 tcp 1040 ------- 0 0.0 1.0 17 27
r 1.16744 0 1 tcp 1040 ------- 0 0.0 1.0 15 24
+ 1.16744 1 0 ack 40 ------- 0 1.0 0.0 15 44
- 1.16744 1 0 ack 40 ------- 0 1.0 0.0 15 44
r 1.16944 1 0 ack 40 ------- 0 1.0 0.0 14 41
+ 1.16944 0 1 tcp 1040 ------- 0 0.0 1.0 29 45
+ 1.16944 0 1 tcp 1040 ------- 0 0.0 1.0 30 46
- 1.17408 0 1 tcp 1040 ------- 0 0.0 1.0 18 28
r 1.17576 0 1 tcp 1040 ------- 0 0.0 1.0 16 25
+ 1.17576 1 0 ack 40 ------- 0 1.0 0.0 16 47
- 1.17576 1 0 ack 40 ------- 0 1.0 0.0 16 47
r 1.17776 1 0 ack 40 ------- 0 1.0 0.0 15 44
+ 1.17776 0 1 tcp 1040 ------- 0 0.0 1.0 31 48
+ 1.17776 0 1 tcp 1040 ------- 0 0.0 1.0 32 49
- 1.1824 0 1 tcp 1040 ------- 0 0.0 1.0 19 30
r 1.18408 0 1 tcp 1040 ------- 0 0.0 1.0 17 27
+ 1.18408 1 0 ack 40 ------- 0 1.0 0.0 17 50
- 1.18408 1 0 ack 40 ------- 0 1.0 0.0 17 50
r 1.18608 1 0 ack 40 ------- 0 1.0 0.0 16 47
+ 1.18608 0 1 tcp 1040 ------- 0 0.0 1.0 33 51
+ 1.18608 0 1 tcp 1040 ------- 0 0.0 1.0 34 52
- 1.19072 0 1 tcp 1040 ------- 0 0.0 1.0 20 31
r 1.1924 0 1 tcp 1040 ------- 0 0.0 1.0 18 28
+ 1.1924 1 0 ack 40 ------- 0 1.0 0.0 18 53
- 1.1924 1 0 ack 40 ------- 0 1.0 0.0 18 53
r 1.1944 1 0 ack 40 ------- 0 1.0 0.0 17 50
+ 1.1944 0 1 tcp 1040 ------- 0 0.0 1.0 35 54
+ 1.1944 0 1 tcp 1040 ------- 0 0.0 1.0 36 55
- 1.19904 0 1 tcp 1040 ------- 0 0.0 1.0 21 33
r 1.20072 0 1 tcp 1040 ------- 0 0.0 1.0 19 30
+ 1.20072 1 0 ack 40 ------- 0 1.0 0.0 19 56
- 1.20072 1 0 ack 40 ------- 0 1.0 0.0 19 56
r 1.20272 1 0 ack 40 ------- 0 1.0 0.0 18 53
+ 1.20272 0 1 tcp 1040 ------- 0 0.0 1.0 37 57
+ 1.20272 0 1 tcp 1040 ------- 0 0.0 1.0 38 58
- 1.20736 0 1 tcp 1040 ------- 0 0.0 1.0 22 34
r 1.20904 0 1 tcp 1040 ------- 0 0.0 1.0 20 31
+ 1.20904 1 0 ack 40 ------- 0 1.0 0.0 20 59
- 1.20904 1 0 ack 40 ------- 0 1.0 0.0 20 59
r 1.21104 1 0 ack 40 ------- 0 1.0 0.0 19 56
+ 1.21104 0 1 tcp 1040 ------- 0 0.0 1.0 39 60
- 1.21568 0 1 tcp 1040 ------- 0 0.0 1.0 23 36
r 1.21736 0 1 tcp 1040 ------- 0 0.0 1.0 21 33
+ 1.21736 1 0 ack 40 ------- 0 1.0 0.0 21 61
- 1.21736 1 0 ack 40 ------- 0 1.0 0.0 21 61
r 1.21936 1 0 ack 40 ------- 0 1.0 0.0 20 59
+ 1.21936 0 1 tcp 1040 ------- 0 0.0 1.0 40 62
- 1.224 0 1 tcp 1040 ------- 0 0.0 1.0 24 37
r 1.22568 0 1 tcp 1040 ------- 0 0.0 1.0 22 34
+ 1.22568 1 0 ack 40 ------- 0 1.0 0.0 22 63
- 1.22568 1 0 ack 40 ------- 0 1.0 0.0 22 63
r 1.22768 1 0 ack 40 ------- 0 1.0 0.0 21 61
+ 1.22768 0 1 tcp 1040 ------- 0 0.0 1.0 41 64
- 1.23232 0 1 tcp 1040 ------- 0 0.0 1.0 25 39
r 1.234 0 1 tcp 1040 ------- 0 0.0 1.0 23 36
+ 1.234 1 0 ack 40 ------- 0 1.0 0.0 23 65
- 1.234 1 0 ack 40 ------- 0 1.0 0.0 23 65
r 1.236 1 0 ack 40 ------- 0 1.0 0.0 22 63
+ 1.236 0 1 tcp 1040 ------- 0 0.0 1.0 42 66
- 1.24064 0 1 tcp 1040 ------- 0 0.0 1.0 26 40
r 1.24232 0 1 tcp 1040 ------- 0 0.0 1.0 24 37
+ 1.24232 1 0 ack 40 ------- 0 1.0 0.0 24 67
- 1.24232 1 0 ack 40 ------- 0 1.0 0.0 24 67
r 1.24432 1 0 ack 40 ------- 0 1.0 0.0 23 65
+ 1.24432 0 1 tcp 1040 ------- 0 0.0 1.0 43 68
- 1.24896 0 1 tcp 1040 ------- 0 0.0 1.0 27 42
r 1.25064 0 1 tcp 1040 ------- 0 0.0 1.0 25 39
+ 1.25064 1 0 ack 40 ------- 0 1.0 0.0 25 69
- 1.25064 1 0 ack 40 ------- 0 1.0 0.0 25 69
r 1.25264 1 0 ack 40 ------- 0 1.0 0.0 24 67
+ 1.25264 0 1 tcp 1040 ------- 0 0.0 1.0 44 70
- 1.25728 0 1 tcp 1040 ------- 0 0.0 1.0 28 43
r 1.25896 0 1 tcp 1040 ------- 0 0.0 1.0 26 40
+ 1.25896 1 0 ack 40 ------- 0 1.0 0.0 26 71
- 1.25896 1 0 ack 40 ------- 0 1.0 0.0 26 71
r 1.26096 1 0 ack 40 ------- 0 1.0 0.0 25 69
+ 1.26096 0 1 tcp 1040 ------- 0 0.0 1.0 45 72
- 1.2656 0 1 tcp 1040 ------- 0 0.0 1.0 29 45
r 1.26728 0 1 tcp 1040 ------- 0 0.0 1.0 27 42
+ 1.26728 1 0 ack 40 ------- 0 1.0 0.0 27 73
- 1.26728 1 0 ack 40 ------- 0 1.0 0.0 27 73
r 1.26928 1 0 ack 40 ------- 0 1.0 0.0 26 71
+ 1.26928 0 1 tcp 1040 ------- 0 0.0 1.0 46 74
- 1.27392 0 1 tcp 1040 ------- 0 0.0 1.0 30 46
r 1.2756 0 1 tcp 1040 ------- 0 0.0 1.0 28 43
+ 1.2756 1 0 ack 40 ------- 0 1.0 0.0 28 75
- 1.2756 1 0 ack 40 ------- 0 1.0 0.0 28 75
r 1.2776 1 0 ack 40 ------- 0 1.0 0.0 27 73
+ 1.2776 0 1 tcp 1040 ------- 0 0.0 1.0 47 76
- 1.28224 0 1 tcp 1040 ------- 0 0.0 1.0 31 48
r 1.28392 0 1 tcp 1040 ------- 0 0.0 1.0 29 45
+ 1.28392 1 0 ack 40 ------- 0 1.0 0.0 29 77
- 1.28392 1 0 ack 40 ------- 0 1.0 0.0 29 77
r 1.28592 1 0 ack 40 ------- 0 1.0 0.0 28 75
+ 1.28592 0 1 tcp 1040 ------- 0 0.0 1.0 48 78
- 1.29056 0 1 tcp 1040 ------- 0 0.0 1.0 32 49
r 1.29224 0 1 tcp 1040 ------- 0 0.0 1.0 30 46
+ 1.29224 1 0 ack 40 ------- 0 1.0 0.0 30 79
- 1.29224 1 0 ack 40 ------- 0 1.0 0.0 30 79
r 1.29424 1 0 ack 40 ------- 0 1.0 0.0 29 77
+ 1.29424 0 1 tcp 1040 ------- 0 0.0 1.0 49 80
- 1.29888 0 1 tcp 1040 ------- 0 0.0 1.0 33 51
r 1.30056 0 1 tcp 1040 ------- 0 0.0 1.0 31 48
+ 1.30056 1 0 ack 40 ------- 0 1.0 0.0 31 81
- 1.30056 1 0 ack 40 ------- 0 1.0 0.0 31 81
r 1.30256 1 0 ack 40 ------- 0 1.0 0.0 30 79
+ 1.30256 0 1 tcp 1040 ------- 0 0.0 1.0 50 82
- 1.3072 0 1 tcp 1040 ------- 0 0.0 1.0 34 52
r 1.30888 0 1 tcp 1040 ------- 0 0.0 1.0 32 49
+ 1.30888 1 0 ack 40 ------- 0 1.0 0.0 32 83
- 1.30888 1 0 ack 40 ------- 0 1.0 0.0 32 83
r 1.31088 1 0 ack 40 ------- 0 1.0 0.0 31 81
+ 1.31088 0 1 tcp 1040 ------- 0 0.0 1.0 51 84
- 1.31552 0 1 tcp 1040 ------- 0 0.0 1.0 35 54
r 1.3172 0 1 tcp 1040 ------- 0 0.0 1.0 33 51
+ 1.3172 1 0 ack 40 ------- 0 1.0 0.0 33 85
- 1.3172 1 0 ack 40 ------- 0 1.0 0.0 33 85
r 1.3192 1 0 ack 40 ------- 0 1.0 0.0 32 83
+ 1.3192 0 1 tcp 1040 ------- 0 0.0 1.0 52 86
- 1.32384 0 1 tcp 1040 ------- 0 0.0 1.0 36 55
r 1.32552 0 1 tcp 1040 ------- 0 0.0 1.0 34 52
+ 1.32552 1 0 ack 40 ------- 0 1.0 0.0 34 87
- 1.32552 1 0 ack 40 ------- 0 1.0 0.0 34 87
r 1.32752 1 0 ack 40 ------- 0 1.0 0.0 33 85
+ 1.32752 0 1 tcp 1040 ------- 0 0.0 1.0 53 88
- 1.33216 0 1 tcp 1040 ------- 0 0.0 1.0 37 57
r 1.33384 0 1 tcp 1040 ------- 0 0.0 1.0 35 54
+ 1.33384 1 0 ack 40 ------- 0 1.0 0.0 35 89
- 1.33384 1 0 ack 40 ------- 0 1.0 0.0 35 89
r 1.33584 1 0 ack 40 ------- 0 1.0 0.0 34 87
+ 1.33584 0 1 tcp 1040 ------- 0 0.0 1.0 54 90
- 1.34048 0 1 tcp 1040 ------- 0 0.0 1.0 38 58
r 1.34216 0 1 tcp 1040 ------- 0 0.0 1.0 36 55
+ 1.34216 1 0 ack 40 ------- 0 1.0 0.0 36 91
- 1.34216 1 0 ack 40 ------- 0 1.0 0.0 36 91
r 1.34416 1 0 ack 40 ------- 0 1.0 0.0 35 89
+ 1.34416 0 1 tcp 1040 ------- 0 0.0 1.0 55 92
- 1.3488 0 1 tcp 1040 ------- 0 0.0 1.0 39 60
r 1.35048 0 1 tcp 1040 ------- 0 0.0 1.0 37 57
+ 1.35048 1 0 ack 40 ------- 0 1.0 0.0 37 93
- 1.35048 1 0 ack 40 ------- 0 1.0 0.0 37 93
r 1.35248 1 0 ack 40 ------- 0 1.0 0.0 36 91
+ 1.35248 0 1 tcp 1040 ------- 0 0.0 1.0 56 94
- 1.35712 0 1 tcp 1040 ------- 0 0.0 1.0 40 62
r 1.3588 0 1 tcp 1040 ------- 0 0.0 1.0 38 58
+ 1.3588 1 0 ack 40 ------- 0 1.0 0.0 38 95
- 1.3588 1 0 ack 40 ------- 0 1.0 0.0 38 95
r 1.3608 1 0 ack 40 ------- 0 1.0 0.0 37 93
+ 1.3608 0 1 tcp 1040 ------- 0 0.0 1.0 57 96
- 1.36544 0 1 tcp 1040 ------- 0 0.0 1.0 41 64
r 1.36712 0 1 tcp 1040 ------- 0 0.0 1.0 39 60
+ 1.36712 1 0 ack 40 ------- 0 1.0 0.0 39 97
- 1.36712 1 0 ack 40 ------- 0 1.0 0.0 39 97
r 1.36912 1 0 ack 40 ------- 0 1.0 0.0 38 95
+ 1.36912 0 1 tcp 1040 ------- 0 0.0 1.0 58 98
- 1.37376 0 1 tcp 1040 ------- 0 0.0 1.0 42 66
r 1.37544 0 1 tcp 1040 ------- 0 0.0 1.0 40 62
+ 1.37544 1 0 ack 40 ------- 0 1.0 0.0 40 99
- 1.37544 1 0 ack 40 ------- 0 1.0 0.0 40 99
r 1.37744 1 0 ack 40 ------- 0 1.0 0.0 39 97
+ 1.37744 0 1 tcp 1040 ------- 0 0.0 1.0 59 100
- 1.38208 0 1 tcp 1040 ------- 0 0.0 1.0 43 68
r 1.38376 0 1 tcp 1040 ------- 0 0.0 1.0 41 64
+ 1.38376 1 0 ack 40 ------- 0 1.0 0.0 41 101
- 1.38376 1 0 ack 40 ------- 0 1.0 0.0 41 101
r 1.38576 1 0 ack 40 ------- 0 1.0 0.0 40 99
+ 1.38576 0 1 tcp 1040 ------- 0 0.0 1.0 60 102
- 1.3904 0 1 tcp 1040 ------- 0 0.0 1.0 44 70
r 1.39208 0 1 tcp 1040 ------- 0 0.0 1.0 42 66
+ 1.39208 1 0 ack 40 ------- 0 1.0 0.0 42 103
- 1.39208 1 0 ack 40 ------- 0 1.0 0.0 42 103
r 1.39408 1 0 ack 40 ------- 0 1.0 0.0 41 101
+ 1.39408 0 1 tcp 1040 ------- 0 0.0 1.0 61 104
- 1.39872 0 1 tcp 1040 ------- 0 0.0 1.0 45 72
r 1.4004 0 1 tcp 1040 ------- 0 0.0 1.0 43 68
+ 1.4004 1 0 ack 40 ------- 0 1.0 0.0 43 105
- 1.4004 1 0 ack 40 ------- 0 1.0 0.0 43 105
r 1.4024 1 0 ack 40 ------- 0 1.0 0.0 42 103
+ 1.4024 0 1 tcp 1040 ------- 0 0.0 1.0 62 106
- 1.40704 0 1 tcp 1040 ------- 0 0.0 1.0 46 74
r 1.40872 0 1 tcp 1040 ------- 0 0.0 1.0 44 70
+ 1.40872 1 0 ack 40 ------- 0 1.0 0.0 44 107
- 1.40872 1 0 ack 40 ------- 0 1.0 0.0 44 107
r 1.41072 1 0 ack 40 ------- 0 1.0 0.0 43 105
+ 1.41072 0 1 tcp 1040 ------- 0 0.0 1.0 63 108
- 1.41536 0 1 tcp 1040 ------- 0 0.0 1.0 47 76
r 1.41704 0 1 tcp 1040 ------- 0 0.0 1.0 45 72
+ 1.41704 1 0 ack 40 ------- 0 1.0 0.0 45 109
- 1.41704 1 0 ack 40 ------- 0 1.0 0.0 45 109
r 1.41904 1 0 ack 40 ------- 0 1.0 0.0 44 107
+ 1.41904 0 1 tcp 1040 ------- 0 0.0 1.0 64 110
- 1.42368 0 1 tcp 1040 ------- 0 0.0 1.0 48 78
r 1.42536 0 1 tcp 1040 ------- 0 0.0 1.0 46 74
+ 1.42536 1 0 ack 40 ------- 0 1.0 0.0 46 111
- 1.42536 1 0 ack 40 ------- 0 1.0 0.0 46 111
r 1.42736 1 0 ack 40 ------- 0 1.0 0.0 45 109
+ 1.42736 0 1 tcp 1040 ------- 0 0.0 1.0 65 112
- 1.432 0 1 tcp 1040 ------- 0 0.0 1.0 49 80
r 1.43368 0 1 tcp 1040 ------- 0 0.0 1.0 47 76
+ 1.43368 1 0 ack 40 ------- 0 1.0 0.0 47 113
- 1.43368 1 0 ack 40 ------- 0 1.0 0.0 47 113
r 1.43568 1 0 ack 40 ------- 0 1.0 0.0 46 111
+ 1.43568 0 1 tcp 1040 ------- 0 0.0 1.0 66 114
- 1.44032 0 1 tcp 1040 ------- 0 0.0 1.0 50 82
r 1.442 0 1 tcp 1040 ------- 0 0.0 1.0 48 78
+ 1.442 1 0 ack 40 ------- 0 1.0 0.0 48 115
- 1.442 1 0 ack 40 ------- 0 1.0 0.0 48 115
r 1.444 1 0 ack 40 ------- 0 1.0 0.0 47 113
+ 1.444 0 1 tcp 1040 ------- 0 0.0 1.0 67 116
- 1.44864 0 1 tcp 1040 ------- 0 0.0 1.0 51 84
r 1.45032 0 1 tcp 1040 ------- 0 0.0 1.0 49 80
+ 1.45032 1 0 ack 40 ------- 0 1.0 0.0 49 117
- 1.45032 1 0 ack 40 ------- 0 1.0 0.0 49 117
r 1.45232 1 0 ack 40 ------- 0 1.0 0.0 48 115
+ 1.45232 0 1 tcp 1040 ------- 0 0.0 1.0 68 118
- 1.45696 0 1 tcp 1040 ------- 0 0.0 1.0 52 86
r 1.45864 0 1 tcp 1040 ------- 0 0.0 1.0 50 82
+ 1.45864 1 0 ack 40 ------- 0 1.0 0.0 50 119
- 1.45864 1 0 ack 40 ------- 0 1.0 0.0 50 119
r 1.46064 1 0 ack 40 ------- 0 1.0 0.0 49 117
+ 1.46064 0 1 tcp 1040 ------- 0 0.0 1.0 69 120
- 1.46528 0 1 tcp 1040 ------- 0 0.0 1.0 53 88
r 1.46696 0 1 tcp 1040 ------- 0 0.0 1.0 51 84
+ 1.46696 1 0 ack 40 ------- 0 1.0 0.0 51 121
- 1.46696 1 0 ack 40 ------- 0 1.0 0.0 51 121
r 1.46896 1 0 ack 40 ------- 0 1.0 0.0 50 119
+ 1.46896 0 1 tcp 1040 ------- 0 0.0 1.0 70 122
- 1.4736 0 1 tcp 1040 ------- 0 0.0 1.0 54 90
r 1.47528 0 1 tcp 1040 ------- 0 0.0 1.0 52 86
+ 1.47528 1 0 ack 40 ------- 0 1.0 0.0 52 123
- 1.47528 1 0 ack 40 ------- 0 1.0 0.0 52 123
r 1.47728 1 0 ack 40 ------- 0 1.0 0.0 51 121
+ 1.47728 0 1 tcp 1040 ------- 0 0.0 1.0 71 124
- 1.48192 0 1 tcp 1040 ------- 0 0.0 1.0 55 92
r 1.4836 0 1 tcp 1040 ------- 0 0.0 1.0 53 88
+ 1.4836 1 0 ack 40 ------- 0 1.0 0.0 53 125
- 1.4836 1 0 ack 40 ------- 0 1.0 0.0 53 125
r 1.4856 1 0 ack 40 ------- 0 1.0 0.0 52 123
+ 1.4856 0 1 tcp 1040 ------- 0 0.0 1.0 72 126
- 1.49024 0 1 tcp 1040 ------- 0 0.0 1.0 56 94
r 1.49192 0 1 tcp 1040 ------- 0 0.0 1.0 54 90
+ 1.49192 1 0 ack 40 ------- 0 1.0 0.0 54 127
- 1.49192 1 0 ack 40 ------- 0 1.0 0.0 54 127
r 1.49392 1 0 ack 40 ------- 0 1.0 0.0 53 125
+ 1.49392 0 1 tcp 1040 ------- 0 0.0 1.0 73 128
- 1.49856 0 1 tcp 1040 ------- 0 0.0 1.0 57 96
r 1.50024 0 1 tcp 1040 ------- 0 0.0 1.0 55 92
+ 1.50024 1 0 ack 40 ------- 0 1.0 0.0 55 129
- 1.50024 1 0 ack 40 ------- 0 1.0 0.0 55 129
r 1.50224 1 0 ack 40 ------- 0 1.0 0.0 54 127
+ 1.50224 0 1 tcp 1040 ------- 0 0.0 1.0 74 130
- 1.50688 0 1 tcp 1040 ------- 0 0.0 1.0 58 98
r 1.50856 0 1 tcp 1040 ------- 0 0.0 1.0 56 94
+ 1.50856 1 0 ack 40 ------- 0 1.0 0.0 56 131
- 1.50856 1 0 ack 40 ------- 0 1.0 0.0 56 131
r 1.51056 1 0 ack 40 ------- 0 1.0 0.0 55 129
+ 1.51056 0 1 tcp 1040 ------- 0 0.0 1.0 75 132
- 1.5152 0 1 tcp 1040 ------- 0 0.0 1.0 59 100
r 1.51688 0 1 tcp 1040 ------- 0 0.0 1.0 57 96
+ 1.51688 1 0 ack 40 ------- 0 1.0 0.0 57 133
- 1.51688 1 0 ack 40 ------- 0 1.0 0.0 57 133
r 1.51888 1 0 ack 40 ------- 0 1.0 0.0 56 131
+ 1.51888 0 1 tcp 1040 ------- 0 0.0 1.0 76 134
- 1.52352 0 1 tcp 1040 ------- 0 0.0 1.0 60 102
r 1.5252 0 1 tcp 1040 ------- 0 0.0 1.0 58 98
+ 1.5252 1 0 ack 40 ------- 0 1.0 0.0 58 135
- 1.5252 1 0 ack 40 ------- 0 1.0 0.0 58 135
r 1.5272 1 0 ack 40 ------- 0 1.0 0.0 57 133
+ 1.5272 0 1 tcp 1040 ------- 0 0.0 1.0 77 136
- 1.53184 0 1 tcp 1040 ------- 0 0.0 1.0 61 104
r 1.53352 0 1 tcp 1040 ------- 0 0.0 1.0 59 100
+ 1.53352 1 0 ack 40 ------- 0 1.0 0.0 59 137
- 1.53352 1 0 ack 40 ------- 0 1.0 0.0 59 137
r 1.53552 1 0 ack 40 ------- 0 1.0 0.0 58 135
+ 1.53552 0 1 tcp 1040 ------- 0 0.0 1.0 78 138
- 1.54016 0 1 tcp 1040 ------- 0 0.0 1.0 62 106
r 1.54184 0 1 tcp 1040 ------- 0 0.0 1.0 60 102
+ 1.54184 1 0 ack 40 ------- 0 1.0 0.0 60 139
- 1.54184 1 0 ack 40 ------- 0 1.0 0.0 60 139
r 1.54384 1 0 ack 40 ------- 0 1.0 0.0 59 137
+ 1.54384 0 1 tcp 1040 ------- 0 0.0 1.0 79 140
- 1.54848 0 1 tcp 1040 ------- 0 0.0 1.0 63 108
r 1.55016 0 1 tcp 1040 ------- 0 0.0 1.0 61 104
+ 1.55016 1 0 ack 40 ------- 0 1.0 0.0 61 141
- 1.55016 1 0 ack 40 ------- 0 1.0 0.0 61 141
r 1.55216 1 0 ack 40 ------- 0 1.0 0.0 60 139
+ 1.55216 0 1 tcp 1040 ------- 0 0.0 1.0 80 142
- 1.5568 0 1 tcp 1040 ------- 0 0.0 1.0 64 110
r 1.55848 0 1 tcp 1040 ------- 0 0.0 1.0 62 106
+ 1.55848 1 0 ack 40 ------- 0 1.0 0.0 62 143
- 1.55848 1 0 ack 40 ------- 0 1.0 0.0 62 143
r 1.56048 1 0 ack 40 ------- 0 1.0 0.0 61 141
+ 1.56048 0 1 tcp 1040 ------- 0 0.0 1.0 81 144
- 1.56512 0 1 tcp 1040 ------- 0 0.0 1.0 65 112
r 1.5668 0 1 tcp 1040 ------- 0 0.0 1.0 63 108
+ 1.5668 1 0 ack 40 ------- 0 1.0 0.0 63 145
- 1.5668 1 0 ack 40 ------- 0 1.0 0.0 63 145
r 1.5688 1 0 ack 40 ------- 0 1.0 0.0 62 143
+ 1.5688 0 1 tcp 1040 ------- 0 0.0 1.0 82 146
- 1.57344 0 1 tcp 1040 ------- 0 0.0 1.0 66 114
r 1.57512 0 1 tcp 1040 ------- 0 0.0 1.0 64 110
+ 1.57512 1 0 ack 40 ------- 0 1.0 0.0 64 147
- 1.57512 1 0 ack 40 ------- 0 1.0 0.0 64 147
r 1.57712 1 0 ack 40 ------- 0 1.0 0.0 63 145
+ 1.57712 0 1 tcp 1040 ------- 0 0.0 1.0 83 148
- 1.58176 0 1 tcp 1040 ------- 0 0.0 1.0 67 116
r 1.58344 0 1 tcp 1040 ------- 0 0.0 1.0 65 112
+ 1.58344 1 0 ack 40 ------- 0 1.0 0.0 65 149
- 1.58344 1 0 ack 40 ------- 0 1.0 0.0 65 149
r 1.58544 1 0 ack 40 ------- 0 1.0 0.0 64 147
+ 1.58544 0 1 tcp 1040 ------- 0 0.0 1.0 84 150
- 1.59008 0 1 tcp 1040 ------- 0 0.0 1.0 68 118
r 1.59176 0 1 tcp 1040 ------- 0 0.0 1.0 66 114
+ 1.59176 1 0 ack 40 ------- 0 1.0 0.0 66 151
- 1.59176 1 0 ack 40 ------- 0 1.0 0.0 66 151
r 1.59376 1 0 ack 40 ------- 0 1.0 0.0 65 149
+ 1.59376 0 1 tcp 1040 ------- 0 0.0 1.0 85 152
- 1.5984 0 1 tcp 1040 ------- 0 0.0 1.0 69 120
r 1.60008 0 1 tcp 1040 ------- 0 0.0 1.0 67 116
+ 1.60008 1 0 ack 40 ------- 0 1.0 0.0 67 153
- 1.60008 1 0 ack 40 ------- 0 1.0 0.0 67 153
r 1.60208 1 0 ack 40 ------- 0 1.0 0.0 66 151
+ 1.60208 0 1 tcp 1040 ------- 0 0.0 1.0 86 154
- 1.60672 0 1 tcp 1040 ------- 0 0.0 1.0 70 122
r 1.6084 0 1 tcp 1040 ------- 0 0.0 1.0 68 118
+ 1.6084 1 0 ack 40 ------- 0 1.0 0.0 68 155
- 1.6084 1 0 ack 40 ------- 0 1.0 0.0 68 155
r 1.6104 1 0 ack 40 ------- 0 1.0 0.0 67 153
+ 1.6104 0 1 tcp 1040 ------- 0 0.0 1.0 87 156
- 1.61504 0 1 tcp 1040 ------- 0 0.0 1.0 71 124
r 1.61672 0 1 tcp 1040 ------- 0 0.0 1.0 69 120
+ 1.61672 1 0 ack 40 ------- 0 1.0 0.0 69 157
- 1.61672 1 0 ack 40 ------- 0 1.0 0.0 69 157
r 1.61872 1 0 ack 40 ------- 0 1.0 0.0 68 155
+ 1.61872 0 1 tcp 1040 ------- 0 0.0 1.0 88 158
- 1.62336 0 1 tcp 1040 ------- 0 0.0 1.0 72 126
r 1.62504 0 1 tcp 1040 ------- 0 0.0 1.0 70 122
+ 1.62504 1 0 ack 40 ------- 0 1.0 0.0 70 159
- 1.62504 1 0 ack 40 ------- 0 1.0 0.0 70 159
r 1.62704 1 0 ack 40 ------- 0 1.0 0.0 69 157
+ 1.62704 0 1 tcp 1040 ------- 0 0.0 1.0 89 160
- 1.63168 0 1 tcp 1040 ------- 0 0.0 1.0 73 128
r 1.63336 0 1 tcp 1040 ------- 0 0.0 1.0 71 124
+ 1.63336 1 0 ack 40 ------- 0 1.0 0.0 71 161
- 1.63336 1 0 ack 40 ------- 0 1.0 0.0 71 161
r 1.63536 1 0 ack 40 ------- 0 1.0 0.0 70 159
+ 1.63536 0 1 tcp 1040 ------- 0 0.0 1.0 90 162
- 1.64 0 1 tcp 1040 ------- 0 0.0 1.0 74 130
r 1.64168 0 1 tcp 1040 ------- 0 0.0 1.0 72 126
+ 1.64168 1 0 ack 40 ------- 0 1.0 0.0 72 163
- 1.64168 1 0 ack 40 ------- 0 1.0 0.0 72 163
r 1.64368 1 0 ack 40 ------- 0 1.0 0.0 71 161
+ 1.64368 0 1 tcp 1040 ------- 0 0.0 1.0 91 164
- 1.64832 0 1 tcp 1040 ------- 0 0.0 1.0 75 132
r 1.65 0 1 tcp 1040 ------- 0 0.0 1.0 73 128
+ 1.65 1 0 ack 40 ------- 0 1.0 0.0 73 165
- 1.65 1 0 ack 40 ------- 0 1.0 0.0 73 165
r 1.652 1 0 ack 40 ------- 0 1.0 0.0 72 163
+ 1.652 0 1 tcp 1040 ------- 0 0.0 1.0 92 166
- 1.65664 0 1 tcp 1040 ------- 0 0.0 1.0 76 134
r 1.65832 0 1 tcp 1040 ------- 0 0.0 1.0 74 130
+ 1.65832 1 0 ack 40 ------- 0 1.0 0.0 74 167
- 1.65832 1 0 ack 40 ------- 0 1.0 0.0 74 167
r 1.66032 1 0 ack 40 ------- 0 1.0 0.0 73 165
+ 1.66032 0 1 tcp 1040 ------- 0 0.0 1.0 93 168
- 1.66496 0 1 tcp 1040 ------- 0 0.0 1.0 77 136
r 1.66664 0 1 tcp 1040 ------- 0 0.0 1.0 75 132
+ 1.66664 1 0 ack 40 ------- 0 1.0 0.0 75 169
- 1.66664 1 0 ack 40 ------- 0 1.0 0.0 75 169
r 1.66864 1 0 ack 40 ------- 0 1.0 0.0 74 167
+ 1.66864 0 1 tcp 1040 ------- 0 0.0 1.0 94 170
- 1.67328 0 1 tcp 1040 ------- 0 0.0 1.0 78 138
r 1.67496 0 1 tcp 1040 ------- 0 0.0 1.0 76 134
+ 1.67496 1 0 ack 40 ------- 0 1.0 0.0 76 171
- 1.67496 1 0 ack 40 ------- 0 1.0 0.0 76 171
r 1.67696 1 0 ack 40 ------- 0 1.0 0.0 75 169
+ 1.67696 0 1 tcp 1040 ------- 0 0.0 1.0 95 172
- 1.6816 0 1 tcp 1040 ------- 0 0.0 1.0 79 140
r 1.68328 0 1 tcp 1040 ------- 0 0.0 1.0 77 136
+ 1.68328 1 0 ack 40 ------- 0 1.0 0.0 77 173
- 1.68328 1 0 ack 40 ------- 0 1.0 0.0 77 173
r 1.68528 1 0 ack 40 ------- 0 1.0 0.0 76 171
+ 1.68528 0 1 tcp 1040 ------- 0 0.0 1.0 96 174
- 1.68992 0 1 tcp 1040 ------- 0 0.0 1.0 80 142
r 1.6916 0 1 tcp 1040 ------- 0 0.0 1.0 78 138
+ 1.6916 1 0 ack 40 ------- 0 1.0 0.0 78 175
- 1.6916 1 0 ack 40 ------- 0 1.0 0.0 78 175
r 1.6936 1 0 ack 40 ------- 0 1.0 0.0 77 173
+ 1.6936 0 1 tcp 1040 ------- 0 0.0 1.0 97 176
- 1.69824 0 1 tcp 1040 ------- 0 0.0 1.0 81 144
r 1.69992 0 1 tcp 1040 ------- 0 0.0 1.0 79 140
+ 1.69992 1 0 ack 40 ------- 0 1.0 0.0 79 177
- 1.69992 1 0 ack 40 ------- 0 1.0 0.0 79 177
r 1.70192 1 0 ack 40 ------- 0 1.0 0.0 78 175
+ 1.70192 0 1 tcp 1040 ------- 0 0.0 1.0 98 178
- 1.70656 0 1 tcp 1040 ------- 0 0.0 1.0 82 146
r 1.70824 0 1 tcp 1040 ------- 0 0.0 1.0 80 142
+ 1.70824 1 0 ack 40 ------- 0 1.0 0.0 80 179
- 1.70824 1 0 ack 40 ------- 0 1.0 0.0 80 179
r 1.71024 1 0 ack 40 ------- 0 1.0 0.0 79 177
+ 1.71024 0 1 tcp 1040 ------- 0 0.0 1.0 99 180
- 1.71488 0 1 tcp 1040 ------- 0 0.0 1.0 83 148
r 1.71656 0 1 tcp 1040 ------- 0 0.0 1.0 81 144
+ 1.71656 1 0 ack 40 ------- 0 1.0 0.0 81 181
- 1.71656 1 0 ack 40 ------- 0 1.0 0.0 81 181
r 1.71856 1 0 ack 40 ------- 0 1.0 0.0 80 179
+ 1.71856 0 1 tcp 1040 ------- 0 0.0 1.0 100 182
- 1.7232 0 1 tcp 1040 ------- 0 0.0 1.0 84 150
r 1.72488 0 1 tcp 1040 ------- 0 0.0 1.0 82 146
+ 1.72488 1 0 ack 40 ------- 0 1.0 0.0 82 183
- 1.72488 1 0 ack 40 ------- 0 1.0 0.0 82 183
r 1.72688 1 0 ack 40 ------- 0 1.0 0.0 81 181
+ 1.72688 0 1 tcp 1040 ------- 0 0.0 1.0 101 184
- 1.73152 0 1 tcp 1040 ------- 0 0.0 1.0 85 152
r 1.7332 0 1 tcp 1040 ------- 0 0.0 1.0 83 148
+ 1.7332 1 0 ack 40 ------- 0 1.0 0.0 83 185
- 1.7332 1 0 ack 40 ------- 0 1.0 0.0 83 185
r 1.7352 1 0 ack 40 ------- 0 1.0 0.0 82 183
+ 1.7352 0 1 tcp 1040 ------- 0 0.0 1.0 102 186
- 1.73984 0 1 tcp 1040 ------- 0 0.0 1.0 86 154
r 1.74152 0 1 tcp 1040 ------- 0 0.0 1.0 84 150
+ 1.74152 1 0 ack 40 ------- 0 1.0 0.0 84 187
- 1.74152 1 0 ack 40 ------- 0 1.0 0.0 84 187
r 1.74352 1 0 ack 40 ------- 0 1.0 0.0 83 185
+ 1.74352 0 1 tcp 1040 ------- 0 0.0 1.0 103 188
- 1.74816 0 1 tcp 1040 ------- 0 0.0 1.0 87 156
r 1.74984 0 1 tcp 1040 ------- 0 0.0 1.0 85 152
+ 1.74984 1 0 ack 40 ------- 0 1.0 0.0 85 189
- 1.74984 1 0 ack 40 ------- 0 1.0 0.0 85 189
r 1.75184 1 0 ack 40 ------- 0 1.0 0.0 84 187
+ 1.75184 0 1 tcp 1040 ------- 0 0.0 1.0 104 190
- 1.75648 0 1 tcp 1040 ------- 0 0.0 1.0 88 158
r 1.75816 0 1 tcp 1040 ------- 0 0.0 1.0 86 154
+ 1.75816 1 0 ack 40 ------- 0 1.0 0.0 86 191
- 1.75816 1 0 ack 40 ------- 0 1.0 0.0 86 191
r 1.76016 1 0 ack 40 ------- 0 1.0 0.0 85 189
+ 1.76016 0 1 tcp 1040 ------- 0 0.0 1.0 105 192
- 1.7648 0 1 tcp 1040 ------- 0 0.0 1.0 89 160
r 1.76648 0 1 tcp 1040 ------- 0 0.0 1.0 87 156
+ 1.76648 1 0 ack 40 ------- 0 1.0 0.0 87 193
- 1.76648 1 0 ack 40 ------- 0 1.0 0.0 87 193
r 1.76848 1 0 ack 40 ------- 0 1.0 0.0 86 191
+ 1.76848 0 1 tcp 1040 ------- 0 0.0 1.0 106 194
- 1.77312 0 1 tcp 1040 ------- 0 0.0 1.0 90 162
r 1.7748 0 1 tcp 1040 ------- 0 0.0 1.0 88 158
+ 1.7748 1 0 ack 40 ------- 0 1.0 0.0 88 195
- 1.7748 1 0 ack 40 ------- 0 1.0 0.0 88 195
r 1.7768 1 0 ack 40 ------- 0 1.0 0.0 87 193
+ 1.7768 0 1 tcp 1040 ------- 0 0.0 1.0 107 196
- 1.78144 0 1 tcp 1040 ------- 0 0.0 1.0 91 164
r 1.78312 0 1 tcp 1040 ------- 0 0.0 1.0 89 160
+ 1.78312 1 0 ack 40 ------- 0 1.0 0.0 89 197
- 1.78312 1 0 ack 40 ------- 0 1.0 0.0 89 197
r 1.78512 1 0 ack 40 ------- 0 1.0 0.0 88 195
+ 1.78512 0 1 tcp 1040 ------- 0 0.0 1.0 108 198
- 1.78976 0 1 tcp 1040 ------- 0 0.0 1.0 92 166
r 1.79144 0 1 tcp 1040 ------- 0 0.0 1.0 90 162
+ 1.79144 1 0 ack 40 ------- 0 1.0 0.0 90 199
- 1.79144 1 0 ack 40 ------- 0 1.0 0.0 90 199
r 1.79344 1 0 ack 40 ------- 0 1.0 0.0 89 197
+ 1.79344 0 1 tcp 1040 ------- 0 0.0 1.0 109 200
- 1.79808 0 1 tcp 1040 ------- 0 0.0 1.0 93 168
r 1.79976 0 1 tcp 1040 ------- 0 0.0 1.0 91 164
+ 1.79976 1 0 ack 40 ------- 0 1.0 0.0 91 201
- 1.79976 1 0 ack 40 ------- 0 1.0 0.0 91 201
r 1.80176 1 0 ack 40 ------- 0 1.0 0.0 90 199
+ 1.80176 0 1 tcp 1040 ------- 0 0.0 1.0 110 202
- 1.8064 0 1 tcp 1040 ------- 0 0.0 1.0 94 170
r 1.80808 0 1 tcp 1040 ------- 0 0.0 1.0 92 166
+ 1.80808 1 0 ack 40 ------- 0 1.0 0.0 92 203
- 1.80808 1 0 ack 40 ------- 0 1.0 0.0 92 203
r 1.81008 1 0 ack 40 ------- 0 1.0 0.0 91 201
+ 1.81008 0 1 tcp 1040 ------- 0 0.0 1.0 111 204
- 1.81472 0 1 tcp 1040 ------- 0 0.0 1.0 95 172
r 1.8164 0 1 tcp 1040 ------- 0 0.0 1.0 93 168
+ 1.8164 1 0 ack 40 ------- 0 1.0 0.0 93 205
- 1.8164 1 0 ack 40 ------- 0 1.0 0.0 93 205
r 1.8184 1 0 ack 40 ------- 0 1.0 0.0 92 203
+ 1.8184 0 1 tcp 1040 ------- 0 0.0 1.0 112 206
- 1.82304 0 1 tcp 1040 ------- 0 0.0 1.0 96 174
r 1.82472 0 1 tcp 1040 ------- 0 0.0 1.0 94 170
+ 1.82472 1 0 ack 40 ------- 0 1.0 0.0 94 207
- 1.82472 1 0 ack 40 ------- 0 1.0 0.0 94 207
r 1.82672 1 0 ack 40 ------- 0 1.0 0.0 93 205
+ 1.82672 0 1 tcp 1040 ------- 0 0.0 1.0 113 208
- 1.83136 0 1 tcp 1040 ------- 0 0.0 1.0 97 176
r 1.83304 0 1 tcp 1040 ------- 0 0.0 1.0 95 172
+ 1.83304 1 0 ack 40 ------- 0 1.0 0.0 95 209
- 1.83304 1 0 ack 40 ------- 0 1.0 0.0 95 209
r 1.83504 1 0 ack 40 ------- 0 1.0 0.0 94 207
+ 1.83504 0 1 tcp 1040 ------- 0 0.0 1.0 114 210
- 1.83968 0 1 tcp 1040 ------- 0 0.0 1.0 98 178
r 1.84136 0 1 tcp 1040 ------- 0 0.0 1.0 96 174
+ 1.84136 1 0 ack 40 ------- 0 1.0 0.0 96 211
- 1.84136 1 0 ack 40 ------- 0 1.0 0.0 96 211
r 1.84336 1 0 ack 40 ------- 0 1.0 0.0 95 209
+ 1.84336 0 1 tcp 1040 ------- 0 0.0 1.0 115 212
- 1.848 0 1 tcp 1040 ------- 0 0.0 1.0 99 180
r 1.84968 0 1 tcp 1040 ------- 0 0.0 1.0 97 176
+ 1.84968 1 0 ack 40 ------- 0 1.0 0.0 97 213
- 1.84968 1 0 ack 40 ------- 0 1.0 0.0 97 213
r 1.85168 1 0 ack 40 ------- 0 1.0 0.0 96 211
+ 1.85168 0 1 tcp 1040 ------- 0 0.0 1.0 116 214
- 1.85632 0 1 tcp 1040 ------- 0 0.0 1.0 100 182
r 1.858 0 1 tcp 1040 ------- 0 0.0 1.0 98 178
+ 1.858 1 0 ack 40 ------- 0 1.0 0.0 98 215
- 1.858 1 0 ack 40 ------- 0 1.0 0.0 98 215
r 1.86 1 0 ack 40 ------- 0 1.0 0.0 97 213
+ 1.86 0 1 tcp 1040 ------- 0 0.0 1.0 117 216
- 1.86464 0 1 tcp 1040 ------- 0 0.0 1.0 101 184
r 1.86632 0 1 tcp 1040 ------- 0 0.0 1.0 99 180
+ 1.86632 1 0 ack 40 ------- 0 1.0 0.0 99 217
- 1.86632 1 0 ack 40 ------- 0 1.0 0.0 99 217
r 1.86832 1 0 ack 40 ------- 0 1.0 0.0 98 215
+ 1.86832 0 1 tcp 1040 ------- 0 0.0 1.0 118 218
- 1.87296 0 1 tcp 1040 ------- 0 0.0 1.0 102 186
r 1.87464 0 1 tcp 1040 ------- 0 0.0 1.0 100 182
+ 1.87464 1 0 ack 40 ------- 0 1.0 0.0 100 219
- 1.87464 1 0 ack 40 ------- 0 1.0 0.0 100 219
r 1.87664 1 0 ack 40 ------- 0 1.0 0.0 99 217
+ 1.87664 0 1 tcp 1040 ------- 0 0.0 1.0 119 220
- 1.88128 0 1 tcp 1040 ------- 0 0.0 1.0 103 188
r 1.88296 0 1 tcp 1040 ------- 0 0.0 1.0 101 184
+ 1.88296 1 0 ack 40 ------- 0 1.0 0.0 101 221
- 1.88296 1 0 ack 40 ------- 0 1.0 0.0 101 221
r 1.88496 1 0 ack 40 ------- 0 1.0 0.0 100 219
+ 1.88496 0 1 tcp 1040 ------- 0 0.0 1.0 120 222
- 1.8896 0 1 tcp 1040 ------- 0 0.0 1.0 104 190
r 1.89128 0 1 tcp 1040 ------- 0 0.0 1.0 102 186
+ 1.89128 1 0 ack 40 ------- 0 1.0 0.0 102 223
- 1.89128 1 0 ack 40 ------- 0 1.0 0.0 102 223
r 1.89328 1 0 ack 40 ------- 0 1.0 0.0 101 221
+ 1.89328 0 1 tcp 1040 ------- 0 0.0 1.0 121 224
- 1.89792 0 1 tcp 1040 ------- 0 0.0 1.0 105 192
r 1.8996 0 1 tcp 1040 ------- 0 0.0 1.0 103 188
+ 1.8996 1 0 ack 40 ------- 0 1.0 0.0 103 225
- 1.8996 1 0 ack 40 ------- 0 1.0 0.0 103 225
r 1.9016 1 0 ack 40 ------- 0 1.0 0.0 102 223
+ 1.9016 0 1 tcp 1040 ------- 0 0.0 1.0 122 226
- 1.90624 0 1 tcp 1040 ------- 0 0.0 1.0 106 194
r 1.90792 0 1 tcp 1040 ------- 0 0.0 1.0 104 190
+ 1.90792 1 0 ack 40 ------- 0 1.0 0.0 104 227
- 1.90792 1 0 ack 40 ------- 0 1.0 0.0 104 227